{
  "version": "1.0.0",
  "description": "Fragrance ingredient database with SMILES, properties, and sustainability data",
  "ingredients": [
    {
      "id": "bergamot_oil",
      "name": "Bergamot Oil",
      "latin_name": "Citrus bergamia",
      "smiles": "CC(C)=CCCC(C)=CC=O",
      "note_type": "top",
      "family": "citrus",
      "logp": 2.8,
      "molecular_weight": 152.24,
      "vapor_pressure_25c": 0.52,
      "is_sustainable": true,
      "source": "natural",
      "sustainability_score": 8,
      "origin": "Italy/Calabria",
      "ifra_restricted": false,
      "allergen": false,
      "descriptors": ["fresh", "citrus", "bergamot", "green", "tea-like"]
    },
    {
      "id": "linalool",
      "name": "Linalool",
      "latin_name": null,
      "smiles": "CC(C)=CCCC(C)(O)C=C",
      "note_type": "middle",
      "family": "floral",
      "logp": 2.97,
      "molecular_weight": 154.25,
      "vapor_pressure_25c": 0.16,
      "is_sustainable": true,
      "source": "bio-based",
      "sustainability_score": 9,
      "origin": "fermentation",
      "ifra_restricted": true,
      "allergen": true,
      "max_concentration": 4.0,
      "descriptors": ["floral", "woody", "lavender", "fresh", "clean"]
    },
    {
      "id": "vanillin_upcycled",
      "name": "Vanillin (Lignin-derived)",
      "latin_name": null,
      "smiles": "COc1cc(C=O)ccc1O",
      "note_type": "base",
      "family": "gourmand",
      "logp": 1.37,
      "molecular_weight": 152.15,
      "vapor_pressure_25c": 0.0026,
      "is_sustainable": true,
      "source": "upcycled",
      "sustainability_score": 10,
      "origin": "paper industry waste lignin",
      "ifra_restricted": false,
      "allergen": false,
      "descriptors": ["vanilla", "sweet", "creamy", "warm", "gourmand"]
    },
    {
      "id": "iso_e_super",
      "name": "Iso E Super",
      "latin_name": null,
      "smiles": "CC1(C)CCCC2(C)C1CCC(=O)C2C",
      "note_type": "base",
      "family": "woody",
      "logp": 4.2,
      "molecular_weight": 234.38,
      "vapor_pressure_25c": 0.0001,
      "is_sustainable": true,
      "source": "bio-based",
      "sustainability_score": 8,
      "origin": "sustainable forestry derivatives",
      "ifra_restricted": false,
      "allergen": false,
      "descriptors": ["woody", "amber", "velvet", "smooth", "skin-like"]
    },
    {
      "id": "sandalwood_australian",
      "name": "Sandalwood Oil (Australian)",
      "latin_name": "Santalum spicatum",
      "smiles": "CC(C)C1CCC(O)C2C1CCC2(C)C",
      "note_type": "base",
      "family": "woody",
      "logp": 4.5,
      "molecular_weight": 220.35,
      "vapor_pressure_25c": 0.00005,
      "is_sustainable": true,
      "source": "natural",
      "sustainability_score": 9,
      "origin": "sustainable plantation Australia",
      "ifra_restricted": false,
      "allergen": false,
      "descriptors": ["woody", "creamy", "milky", "soft", "meditative"]
    },
    {
      "id": "hedione",
      "name": "Hedione",
      "latin_name": null,
      "smiles": "COC(=O)CC(C)CCC=C(C)C",
      "note_type": "middle",
      "family": "floral",
      "logp": 3.4,
      "molecular_weight": 226.32,
      "vapor_pressure_25c": 0.002,
      "is_sustainable": true,
      "source": "bio-based",
      "sustainability_score": 8,
      "origin": "green chemistry synthesis",
      "ifra_restricted": false,
      "allergen": false,
      "descriptors": ["jasmine", "green", "fresh", "transparent", "radiant"]
    },
    {
      "id": "cedarwood_upcycled",
      "name": "Cedarwood Oil (Upcycled)",
      "latin_name": "Cedrus atlantica",
      "smiles": "CC1CCC2C(C)(C)C3CCC(C)(O)C3CC12",
      "note_type": "base",
      "family": "woody",
      "logp": 4.8,
      "molecular_weight": 222.37,
      "vapor_pressure_25c": 0.00003,
      "is_sustainable": true,
      "source": "upcycled",
      "sustainability_score": 10,
      "origin": "furniture industry wood waste",
      "ifra_restricted": false,
      "allergen": false,
      "descriptors": ["woody", "dry", "pencil", "warm", "masculine"]
    },
    {
      "id": "rose_upcycled",
      "name": "Rose Absolute (Upcycled)",
      "latin_name": "Rosa damascena",
      "smiles": "CC(C)=CCCC(C)=CCO",
      "note_type": "middle",
      "family": "floral",
      "logp": 3.1,
      "molecular_weight": 154.25,
      "vapor_pressure_25c": 0.08,
      "is_sustainable": true,
      "source": "upcycled",
      "sustainability_score": 10,
      "origin": "distillation waste petals",
      "ifra_restricted": false,
      "allergen": false,
      "descriptors": ["rose", "floral", "honey", "green", "romantic"]
    },
    {
      "id": "vetiver_haiti",
      "name": "Vetiver Oil",
      "latin_name": "Vetiveria zizanioides",
      "smiles": "CC1CCC2C(C)C(=C)CCC2(C)C1O",
      "note_type": "base",
      "family": "woody",
      "logp": 5.2,
      "molecular_weight": 222.37,
      "vapor_pressure_25c": 0.00001,
      "is_sustainable": true,
      "source": "natural",
      "sustainability_score": 9,
      "origin": "Haiti fair trade",
      "ifra_restricted": false,
      "allergen": false,
      "descriptors": ["earthy", "woody", "smoky", "green", "complex"]
    },
    {
      "id": "ambroxan",
      "name": "Ambroxan",
      "latin_name": null,
      "smiles": "CC12CCCC(C)(C)C1CCC(O)C2",
      "note_type": "base",
      "family": "ambery",
      "logp": 4.6,
      "molecular_weight": 236.40,
      "vapor_pressure_25c": 0.00008,
      "is_sustainable": true,
      "source": "bio-based",
      "sustainability_score": 9,
      "origin": "sclareol fermentation",
      "ifra_restricted": false,
      "allergen": false,
      "descriptors": ["amber", "musky", "mineral", "salty", "skin-like"]
    },
    {
      "id": "citral",
      "name": "Citral",
      "latin_name": null,
      "smiles": "CC(C)=CCCC(C)=CC=O",
      "note_type": "top",
      "family": "citrus",
      "logp": 3.17,
      "molecular_weight": 152.24,
      "vapor_pressure_25c": 0.45,
      "is_sustainable": true,
      "source": "natural",
      "sustainability_score": 7,
      "origin": "lemongrass",
      "ifra_restricted": true,
      "allergen": true,
      "max_concentration": 0.6,
      "descriptors": ["lemon", "fresh", "citrus", "green", "verbena"]
    },
    {
      "id": "ethyl_maltol",
      "name": "Ethyl Maltol",
      "latin_name": null,
      "smiles": "CCC1=C(O)C(=O)C=CO1",
      "note_type": "base",
      "family": "gourmand",
      "logp": 0.37,
      "molecular_weight": 140.14,
      "vapor_pressure_25c": 0.001,
      "is_sustainable": true,
      "source": "bio-based",
      "sustainability_score": 8,
      "origin": "fermentation",
      "ifra_restricted": false,
      "allergen": false,
      "descriptors": ["sweet", "caramel", "cotton candy", "fruity", "cozy"]
    },
    {
      "id": "incense_olibanum",
      "name": "Frankincense Oil",
      "latin_name": "Boswellia sacra",
      "smiles": "CC(C)C1CCC(C)C(O)C1",
      "note_type": "base",
      "family": "resinous",
      "logp": 3.8,
      "molecular_weight": 156.27,
      "vapor_pressure_25c": 0.0005,
      "is_sustainable": true,
      "source": "natural",
      "sustainability_score": 8,
      "origin": "Oman sustainable harvest",
      "ifra_restricted": false,
      "allergen": false,
      "descriptors": ["incense", "resinous", "smoky", "spiritual", "ancient"]
    },
    {
      "id": "petrichor_geosmin",
      "name": "Geosmin (Petrichor)",
      "latin_name": null,
      "smiles": "CC1CCCC2(O)CCCCC12C",
      "note_type": "middle",
      "family": "earthy",
      "logp": 3.57,
      "molecular_weight": 182.30,
      "vapor_pressure_25c": 0.003,
      "is_sustainable": true,
      "source": "bio-based",
      "sustainability_score": 9,
      "origin": "bacterial fermentation",
      "ifra_restricted": false,
      "allergen": false,
      "descriptors": ["earthy", "rain", "petrichor", "fresh", "mineral"]
    },
    {
      "id": "moss_evernyl",
      "name": "Evernyl (Oakmoss Alternative)",
      "latin_name": null,
      "smiles": "COc1cc(C)c(O)c(OC)c1C(=O)OC",
      "note_type": "base",
      "family": "chypre",
      "logp": 2.1,
      "molecular_weight": 226.23,
      "vapor_pressure_25c": 0.0001,
      "is_sustainable": true,
      "source": "bio-based",
      "sustainability_score": 9,
      "origin": "synthetic alternative to restricted oakmoss",
      "ifra_restricted": false,
      "allergen": false,
      "descriptors": ["moss", "woody", "damp", "forest", "green"]
    }
  ],
  "note_families": {
    "top": ["citrus", "green", "aromatic", "aquatic"],
    "middle": ["floral", "spicy", "fruity", "herbal"],
    "base": ["woody", "ambery", "musky", "gourmand", "resinous", "chypre"]
  },
  "sustainability_sources": {
    "natural": "Ethically sourced from sustainable plantations or wild harvest",
    "bio-based": "Produced through green chemistry or fermentation processes",
    "upcycled": "Derived from industrial waste streams (paper, furniture, food)",
    "synthetic": "Traditional petrochemical synthesis (not preferred)"
  }
}
